<?xml version="1.0" encoding="UTF-8"?>

<!-- generated on 4/30/2017 12:01:15 AM by SUMO gui Version 0.29.0
<?xml version="1.0" encoding="UTF-8"?>

<configuration xmlns:xsi="http://www.w3.org/2001/XMLSchema-instance" xsi:noNamespaceSchemaLocation="http://sumo.dlr.de/xsd/sumo-gui.exeConfiguration.xsd">

    <input>
        <net-file value="C:\Users\yli\Dropbox\sure\new_controllor\sumo\Vanderbilt.net.xml"/>
        <route-files value="C:\Users\yli\Dropbox\sure\new_controllor\sumo\new_random.xml"/>
        <additional-files value="C:\Users\yli\Dropbox\sure\new_controllor\sumo\detectors.xml"/>
    </input>

    <output>
        <tripinfo-output value="C:\Users\yli\Dropbox\sure\new_controllor\sumo\tripinfo.xml"/>
    </output>

    <time>
        <begin value="0"/>
        <end value="7200"/>
        <step-length value="0.1"/>
    </time>

    <processing>
        <ignore-junction-blocker value="30"/>
        <time-to-teleport value="7200"/>
    </processing>

</configuration>
-->

<tripinfos xmlns:xsi="http://www.w3.org/2001/XMLSchema-instance" xsi:noNamespaceSchemaLocation="http://sumo.dlr.de/xsd/tripinfo_file.xsd">
    <tripinfo id="14" depart="14.00" departLane="19451595#1_0" departPos="43.03" departSpeed="13.53" departDelay="0.00" arrival="160.40" arrivalLane="-19458185#2_0" arrivalPos="134.93" arrivalSpeed="13.89" duration="146.40" routeLength="2687.34" waitSteps="0" timeLoss="37.71" rerouteNo="0" devices="tripinfo_14" vType="Car" speedFactor="1.00" vaporized=""/>
    <tripinfo id="19" depart="19.00" departLane="107373509#2_0" departPos="34.12" departSpeed="19.39" departDelay="0.00" arrival="204.90" arrivalLane="268942329#3_0" arrivalPos="93.70" arrivalSpeed="5.56" duration="185.90" routeLength="3064.80" waitSteps="0" timeLoss="45.94" rerouteNo="0" devices="tripinfo_19" vType="Car" speedFactor="1.00" vaporized=""/>
    <tripinfo id="39" depart="39.00" departLane="19484078#3_1" departPos="33.15" departSpeed="27.78" departDelay="0.00" arrival="214.20" arrivalLane="245915229#13_0" arrivalPos="1569.10" arrivalSpeed="27.78" duration="175.20" routeLength="3592.08" waitSteps="119" timeLoss="45.39" rerouteNo="0" devices="tripinfo_39" vType="Car" speedFactor="1.00" vaporized=""/>
    <tripinfo id="7" depart="7.00" departLane="19479801#9_0" departPos="65.66" departSpeed="27.78" departDelay="0.00" arrival="214.30" arrivalLane="-19481602#0_0" arrivalPos="42.63" arrivalSpeed="11.30" duration="207.30" routeLength="2786.81" waitSteps="537" timeLoss="99.74" rerouteNo="0" devices="tripinfo_7" vType="Car" speedFactor="1.00" vaporized=""/>
    <tripinfo id="76" depart="76.00" departLane="239584832#0_0" departPos="51.53" departSpeed="13.89" departDelay="0.00" arrival="218.90" arrivalLane="19457657_0" arrivalPos="77.44" arrivalSpeed="13.89" duration="142.90" routeLength="2411.84" waitSteps="0" timeLoss="15.81" rerouteNo="0" devices="tripinfo_76" vType="Car" speedFactor="1.00" vaporized=""/>
    <tripinfo id="25" depart="25.00" departLane="-19456021#6_0" departPos="0.83" departSpeed="13.89" departDelay="0.00" arrival="219.20" arrivalLane="19457161#1_0" arrivalPos="92.07" arrivalSpeed="13.89" duration="194.20" routeLength="3355.93" waitSteps="0" timeLoss="43.85" rerouteNo="0" devices="tripinfo_25" vType="Car" speedFactor="1.00" vaporized=""/>
    <tripinfo id="45" depart="45.00" departLane="-245915229#14_0" departPos="504.16" departSpeed="27.78" departDelay="0.00" arrival="222.70" arrivalLane="-19451054#1_0" arrivalPos="43.04" arrivalSpeed="13.89" duration="177.70" routeLength="3788.54" waitSteps="64" timeLoss="34.86" rerouteNo="0" devices="tripinfo_45" vType="Car" speedFactor="1.00" vaporized=""/>
    <tripinfo id="27" depart="27.00" departLane="-268942324_0" departPos="205.62" departSpeed="5.56" departDelay="0.00" arrival="223.10" arrivalLane="-19480917_0" arrivalPos="146.81" arrivalSpeed="13.89" duration="196.10" routeLength="3149.60" waitSteps="0" timeLoss="49.52" rerouteNo="0" devices="tripinfo_27" vType="Car" speedFactor="1.00" vaporized=""/>
    <tripinfo id="5" depart="5.00" departLane="-19456335_0" departPos="302.47" departSpeed="12.29" departDelay="0.00" arrival="224.50" arrivalLane="19455824#0_0" arrivalPos="133.76" arrivalSpeed="27.78" duration="219.50" routeLength="1938.63" waitSteps="723" timeLoss="134.14" rerouteNo="0" devices="tripinfo_5" vType="Car" speedFactor="1.00" vaporized=""/>
    <tripinfo id="61" depart="61.00" departLane="19469847#0_0" departPos="191.87" departSpeed="13.89" departDelay="0.00" arrival="230.60" arrivalLane="19457657_0" arrivalPos="77.44" arrivalSpeed="13.89" duration="169.60" routeLength="2512.66" waitSteps="0" timeLoss="38.84" rerouteNo="0" devices="tripinfo_61" vType="Car" speedFactor="1.00" vaporized=""/>
    <tripinfo id="55" depart="55.00" departLane="19469847#0_0" departPos="209.98" departSpeed="13.12" departDelay="0.00" arrival="239.70" arrivalLane="-19481746#1_0" arrivalPos="183.78" arrivalSpeed="13.89" duration="184.70" routeLength="2581.03" waitSteps="0" timeLoss="66.64" rerouteNo="0" devices="tripinfo_55" vType="Car" speedFactor="1.00" vaporized=""/>
    <tripinfo id="85" depart="85.00" departLane="19469847#0_0" departPos="147.90" departSpeed="13.89" departDelay="0.00" arrival="250.60" arrivalLane="19474043#3_0" arrivalPos="43.94" arrivalSpeed="20.69" duration="165.60" routeLength="2416.35" waitSteps="0" timeLoss="52.57" rerouteNo="0" devices="tripinfo_85" vType="Car" speedFactor="1.00" vaporized=""/>
    <tripinfo id="95" depart="95.00" departLane="-19479801#10_1" departPos="20.85" departSpeed="27.78" departDelay="0.00" arrival="267.80" arrivalLane="-19480917_0" arrivalPos="146.81" arrivalSpeed="13.89" duration="172.80" routeLength="2569.07" waitSteps="67" timeLoss="73.42" rerouteNo="0" devices="tripinfo_95" vType="Car" speedFactor="1.00" vaporized=""/>
    <tripinfo id="65" depart="65.00" departLane="-19481813#3_0" departPos="56.82" departSpeed="13.89" departDelay="0.00" arrival="275.60" arrivalLane="293789169_0" arrivalPos="150.58" arrivalSpeed="13.89" duration="210.60" routeLength="3154.29" waitSteps="211" timeLoss="72.79" rerouteNo="0" devices="tripinfo_65" vType="Car" speedFactor="1.00" vaporized=""/>
    <tripinfo id="63" depart="63.00" departLane="73961894_1" departPos="225.11" departSpeed="27.78" departDelay="0.00" arrival="279.60" arrivalLane="19472023#3_0" arrivalPos="121.04" arrivalSpeed="13.89" duration="216.60" routeLength="2416.63" waitSteps="709" timeLoss="124.59" rerouteNo="0" devices="tripinfo_63" vType="Car" speedFactor="1.00" vaporized=""/>
    <tripinfo id="57" depart="57.00" departLane="-19457161#1_0" departPos="92.00" departSpeed="13.89" departDelay="0.00" arrival="286.40" arrivalLane="19485710#3_0" arrivalPos="218.85" arrivalSpeed="13.89" duration="229.40" routeLength="2914.31" waitSteps="421" timeLoss="91.25" rerouteNo="0" devices="tripinfo_57" vType="Car" speedFactor="1.00" vaporized=""/>
    <tripinfo id="68" depart="68.00" departLane="19479801#0_0" departPos="1434.52" departSpeed="27.78" departDelay="0.00" arrival="286.80" arrivalLane="-199423341#0_0" arrivalPos="7.18" arrivalSpeed="5.56" duration="218.80" routeLength="3410.35" waitSteps="284" timeLoss="91.57" rerouteNo="0" devices="tripinfo_68" vType="Car" speedFactor="1.00" vaporized=""/>
    <tripinfo id="81" depart="81.00" departLane="-301635408_0" departPos="166.63" departSpeed="5.56" departDelay="0.00" arrival="291.00" arrivalLane="19456021#6_0" arrivalPos="149.81" arrivalSpeed="13.89" duration="210.00" routeLength="3271.42" waitSteps="34" timeLoss="72.60" rerouteNo="0" devices="tripinfo_81" vType="Car" speedFactor="1.00" vaporized=""/>
    <tripinfo id="140" depart="140.00" departLane="-19458185#2_0" departPos="80.47" departSpeed="13.89" departDelay="0.00" arrival="292.20" arrivalLane="-19481602#0_0" arrivalPos="42.63" arrivalSpeed="13.89" duration="152.20" routeLength="2666.87" waitSteps="0" timeLoss="33.28" rerouteNo="0" devices="tripinfo_140" vType="Car" speedFactor="1.00" vaporized=""/>
    <tripinfo id="28" depart="28.00" departLane="-19472381#2_0" departPos="43.33" departSpeed="13.89" departDelay="0.00" arrival="295.00" arrivalLane="-19484163#4_0" arrivalPos="288.61" arrivalSpeed="13.89" duration="267.00" routeLength="3106.79" waitSteps="267" timeLoss="101.08" rerouteNo="0" devices="tripinfo_28" vType="Car" speedFactor="1.00" vaporized=""/>
    <tripinfo id="23" depart="23.00" departLane="19457671#2_0" departPos="110.36" departSpeed="13.89" departDelay="0.00" arrival="295.60" arrivalLane="19469596_0" arrivalPos="220.19" arrivalSpeed="13.89" duration="272.60" routeLength="3436.62" waitSteps="128" timeLoss="104.94" rerouteNo="0" devices="tripinfo_23" vType="Car" speedFactor="1.00" vaporized=""/>
    <tripinfo id="107" depart="107.00" departLane="19454743#4_0" departPos="34.62" departSpeed="13.89" departDelay="0.00" arrival="301.00" arrivalLane="19457161#1_0" arrivalPos="92.07" arrivalSpeed="13.89" duration="194.00" routeLength="2744.95" waitSteps="0" timeLoss="60.22" rerouteNo="0" devices="tripinfo_107" vType="Car" speedFactor="1.00" vaporized=""/>
    <tripinfo id="49" depart="49.00" departLane="-19450730#3_0" departPos="16.65" departSpeed="13.89" departDelay="0.00" arrival="303.70" arrivalLane="19469825#1_0" arrivalPos="196.86" arrivalSpeed="13.89" duration="254.70" routeLength="2605.86" waitSteps="483" timeLoss="116.90" rerouteNo="0" devices="tripinfo_49" vType="Car" speedFactor="1.00" vaporized=""/>
    <tripinfo id="80" depart="80.00" departLane="-293789169_0" departPos="18.79" departSpeed="13.89" departDelay="0.00" arrival="303.90" arrivalLane="-19477338#1_0" arrivalPos="104.48" arrivalSpeed="13.89" duration="223.90" routeLength="2942.73" waitSteps="65" timeLoss="95.46" rerouteNo="0" devices="tripinfo_80" vType="Car" speedFactor="1.00" vaporized=""/>
    <tripinfo id="66" depart="66.00" departLane="19469847#0_0" departPos="34.81" departSpeed="13.89" departDelay="0.00" arrival="304.90" arrivalLane="-19479816#0_0" arrivalPos="205.90" arrivalSpeed="13.89" duration="238.90" routeLength="2569.14" waitSteps="662" timeLoss="123.89" rerouteNo="0" devices="tripinfo_66" vType="Car" speedFactor="1.00" vaporized=""/>
    <tripinfo id="26" depart="26.00" departLane="19452301#1_0" departPos="18.08" departSpeed="7.27" departDelay="0.00" arrival="305.20" arrivalLane="19479801#2_1" arrivalPos="106.21" arrivalSpeed="15.47" duration="279.20" routeLength="3035.24" waitSteps="679" timeLoss="160.47" rerouteNo="0" devices="tripinfo_26" vType="Car" speedFactor="1.00" vaporized=""/>
    <tripinfo id="40" depart="40.00" departLane="-19451647#10_0" departPos="55.08" departSpeed="13.89" departDelay="0.00" arrival="307.00" arrivalLane="-19458185#0_0" arrivalPos="161.94" arrivalSpeed="13.89" duration="267.00" routeLength="2987.23" waitSteps="402" timeLoss="131.12" rerouteNo="0" devices="tripinfo_40" vType="Car" speedFactor="1.00" vaporized=""/>
    <tripinfo id="78" depart="78.00" departLane="19472871#5_0" departPos="35.45" departSpeed="13.89" departDelay="0.00" arrival="307.40" arrivalLane="19457616#10_1" arrivalPos="101.07" arrivalSpeed="27.78" duration="229.40" routeLength="2381.53" waitSteps="509" timeLoss="119.60" rerouteNo="0" devices="tripinfo_78" vType="Car" speedFactor="1.00" vaporized=""/>
    <tripinfo id="46" depart="46.00" departLane="19451647#9_0" departPos="75.86" departSpeed="13.89" departDelay="0.00" arrival="313.10" arrivalLane="-239614016#0_0" arrivalPos="115.62" arrivalSpeed="13.89" duration="267.10" routeLength="3063.60" waitSteps="191" timeLoss="124.87" rerouteNo="0" devices="tripinfo_46" vType="Car" speedFactor="1.00" vaporized=""/>
    <tripinfo id="146" depart="146.00" departLane="-19457657_0" departPos="45.37" departSpeed="13.77" departDelay="0.00" arrival="313.90" arrivalLane="-19481422#0_0" arrivalPos="209.01" arrivalSpeed="13.89" duration="167.90" routeLength="2791.76" waitSteps="0" timeLoss="26.51" rerouteNo="0" devices="tripinfo_146" vType="Car" speedFactor="1.00" vaporized=""/>
    <tripinfo id="50" depart="50.00" departLane="-19481122#1_0" departPos="25.43" departSpeed="12.80" departDelay="0.00" arrival="314.00" arrivalLane="-120254976#7_1" arrivalPos="28.47" arrivalSpeed="27.78" duration="264.00" routeLength="2948.11" waitSteps="732" timeLoss="144.59" rerouteNo="0" devices="tripinfo_50" vType="Car" speedFactor="1.00" vaporized=""/>
    <tripinfo id="9" depart="9.00" departLane="-239584832#1_0" departPos="65.83" departSpeed="13.89" departDelay="0.00" arrival="315.70" arrivalLane="19453082#0_0" arrivalPos="67.54" arrivalSpeed="13.89" duration="306.70" routeLength="3432.18" waitSteps="801" timeLoss="166.73" rerouteNo="0" devices="tripinfo_9" vType="Car" speedFactor="1.00" vaporized=""/>
    <tripinfo id="115" depart="115.00" departLane="19469847#0_0" departPos="102.34" departSpeed="13.89" departDelay="0.00" arrival="320.90" arrivalLane="19457657_0" arrivalPos="77.44" arrivalSpeed="13.89" duration="205.90" routeLength="2602.19" waitSteps="226" timeLoss="68.39" rerouteNo="0" devices="tripinfo_115" vType="Car" speedFactor="1.00" vaporized=""/>
    <tripinfo id="43" depart="43.00" departLane="-19457657_0" departPos="46.22" departSpeed="13.54" departDelay="0.00" arrival="324.00" arrivalLane="260050188_0" arrivalPos="39.46" arrivalSpeed="5.56" duration="281.00" routeLength="2950.13" waitSteps="596" timeLoss="105.24" rerouteNo="0" devices="tripinfo_43" vType="Car" speedFactor="1.00" vaporized=""/>
    <tripinfo id="3" depart="3.00" departLane="-268942329#0_0" departPos="1.36" departSpeed="5.56" departDelay="0.00" arrival="328.20" arrivalLane="19454743#7_0" arrivalPos="111.58" arrivalSpeed="13.89" duration="325.20" routeLength="3280.56" waitSteps="644" timeLoss="147.24" rerouteNo="0" devices="tripinfo_3" vType="Car" speedFactor="1.00" vaporized=""/>
    <tripinfo id="71" depart="71.00" departLane="19448677_0" departPos="2.80" departSpeed="13.89" departDelay="0.00" arrival="332.00" arrivalLane="-268942328_0" arrivalPos="265.53" arrivalSpeed="5.56" duration="261.00" routeLength="2505.74" waitSteps="371" timeLoss="102.99" rerouteNo="0" devices="tripinfo_71" vType="Car" speedFactor="1.00" vaporized=""/>
    <tripinfo id="24" depart="24.00" departLane="-19457616#12_1" departPos="663.58" departSpeed="27.78" departDelay="0.00" arrival="333.50" arrivalLane="-19482687#4_1" arrivalPos="73.01" arrivalSpeed="18.60" duration="309.50" routeLength="2003.94" waitSteps="1648" timeLoss="231.15" rerouteNo="0" devices="tripinfo_24" vType="Car" speedFactor="1.00" vaporized=""/>
    <tripinfo id="106" depart="106.00" departLane="-19484078#2_1" departPos="30.06" departSpeed="27.78" departDelay="0.00" arrival="336.50" arrivalLane="-19458189#0_0" arrivalPos="111.98" arrivalSpeed="13.89" duration="230.50" routeLength="2593.69" waitSteps="830" timeLoss="123.12" rerouteNo="0" devices="tripinfo_106" vType="Car" speedFactor="1.00" vaporized=""/>
    <tripinfo id="114" depart="114.00" departLane="245915229#5_1" departPos="104.41" departSpeed="27.78" departDelay="0.00" arrival="338.20" arrivalLane="19457161#0_0" arrivalPos="96.25" arrivalSpeed="13.89" duration="224.20" routeLength="3451.23" waitSteps="3" timeLoss="74.99" rerouteNo="0" devices="tripinfo_114" vType="Car" speedFactor="1.00" vaporized=""/>
    <tripinfo id="18" depart="18.00" departLane="-261716694_0" departPos="2.12" departSpeed="5.56" departDelay="0.00" arrival="339.10" arrivalLane="-19457433#0_0" arrivalPos="767.51" arrivalSpeed="22.22" duration="321.10" routeLength="4227.24" waitSteps="460" timeLoss="121.51" rerouteNo="0" devices="tripinfo_18" vType="Car" speedFactor="1.00" vaporized=""/>
    <tripinfo id="62" depart="62.00" departLane="19469847#0_0" departPos="165.74" departSpeed="13.89" departDelay="0.00" arrival="342.50" arrivalLane="239576140#3_0" arrivalPos="59.55" arrivalSpeed="12.04" duration="280.50" routeLength="3020.47" waitSteps="813" timeLoss="152.77" rerouteNo="0" devices="tripinfo_62" vType="Car" speedFactor="1.00" vaporized=""/>
    <tripinfo id="92" depart="92.00" departLane="-19479816#1_0" departPos="39.23" departSpeed="11.89" departDelay="0.00" arrival="342.60" arrivalLane="-260050199_0" arrivalPos="14.13" arrivalSpeed="5.56" duration="250.60" routeLength="3878.93" waitSteps="42" timeLoss="83.72" rerouteNo="0" devices="tripinfo_92" vType="Car" speedFactor="1.00" vaporized=""/>
    <tripinfo id="44" depart="44.00" departLane="-19451647#11_0" departPos="68.23" departSpeed="13.86" departDelay="0.00" arrival="343.30" arrivalLane="-19457433#1_0" arrivalPos="104.50" arrivalSpeed="22.22" duration="299.30" routeLength="3619.67" waitSteps="81" timeLoss="139.80" rerouteNo="0" devices="tripinfo_44" vType="Car" speedFactor="1.00" vaporized=""/>
    <tripinfo id="90" depart="90.00" departLane="-19456231#6_0" departPos="97.33" departSpeed="7.22" departDelay="0.00" arrival="344.80" arrivalLane="-239576140#2_0" arrivalPos="85.06" arrivalSpeed="13.89" duration="254.80" routeLength="3090.23" waitSteps="548" timeLoss="129.82" rerouteNo="0" devices="tripinfo_90" vType="Car" speedFactor="1.00" vaporized=""/>
    <tripinfo id="70" depart="70.00" departLane="260050184_0" departPos="62.95" departSpeed="5.56" departDelay="0.00" arrival="345.30" arrivalLane="-19450375#0_0" arrivalPos="357.54" arrivalSpeed="13.89" duration="275.30" routeLength="3271.80" waitSteps="176" timeLoss="77.75" rerouteNo="0" devices="tripinfo_70" vType="Car" speedFactor="1.00" vaporized=""/>
    <tripinfo id="52" depart="52.00" departLane="-19456231#5_0" departPos="19.27" departSpeed="13.89" departDelay="0.00" arrival="350.30" arrivalLane="293789169_0" arrivalPos="150.58" arrivalSpeed="13.89" duration="298.30" routeLength="3629.24" waitSteps="437" timeLoss="130.69" rerouteNo="0" devices="tripinfo_52" vType="Car" speedFactor="1.00" vaporized=""/>
    <tripinfo id="56" depart="56.00" departLane="19481422#0_0" departPos="36.56" departSpeed="13.89" departDelay="0.00" arrival="351.30" arrivalLane="19457161#1_0" arrivalPos="92.07" arrivalSpeed="13.89" duration="295.30" routeLength="3319.77" waitSteps="851" timeLoss="150.68" rerouteNo="0" devices="tripinfo_56" vType="Car" speedFactor="1.00" vaporized=""/>
    <tripinfo id="37" depart="37.00" departLane="-60820954_0" departPos="57.82" departSpeed="9.37" departDelay="0.00" arrival="353.90" arrivalLane="-199423148_0" arrivalPos="335.17" arrivalSpeed="5.56" duration="316.90" routeLength="4317.37" waitSteps="0" timeLoss="85.47" rerouteNo="0" devices="tripinfo_37" vType="Car" speedFactor="1.00" vaporized=""/>
    <tripinfo id="4" depart="4.00" departLane="337393244#7_2" departPos="87.01" departSpeed="2.18" departDelay="0.00" arrival="354.40" arrivalLane="19450204#3_0" arrivalPos="190.69" arrivalSpeed="13.89" duration="350.40" routeLength="3108.94" waitSteps="1460" timeLoss="218.78" rerouteNo="0" devices="tripinfo_4" vType="Car" speedFactor="1.00" vaporized=""/>
    <tripinfo id="199" depart="199.00" departLane="-19457616#12_1" departPos="842.41" departSpeed="27.78" departDelay="0.00" arrival="354.50" arrivalLane="-19451090#1_0" arrivalPos="0.20" arrivalSpeed="13.89" duration="155.50" routeLength="1636.96" waitSteps="455" timeLoss="82.81" rerouteNo="0" devices="tripinfo_199" vType="Car" speedFactor="1.00" vaporized=""/>
    <tripinfo id="99" depart="99.00" departLane="-226014645#1_0" departPos="13.89" departSpeed="13.89" departDelay="0.00" arrival="358.30" arrivalLane="-43073308#4_0" arrivalPos="75.30" arrivalSpeed="27.78" duration="259.30" routeLength="2318.65" waitSteps="843" timeLoss="164.17" rerouteNo="0" devices="tripinfo_99" vType="Car" speedFactor="1.00" vaporized=""/>
    <tripinfo id="108" depart="108.00" departLane="19479801#0_1" departPos="259.08" departSpeed="27.78" departDelay="0.00" arrival="358.40" arrivalLane="19481368#2_0" arrivalPos="46.37" arrivalSpeed="10.94" duration="250.40" routeLength="4256.82" waitSteps="614" timeLoss="85.32" rerouteNo="0" devices="tripinfo_108" vType="Car" speedFactor="1.00" vaporized=""/>
    <tripinfo id="10" depart="10.00" departLane="-19457616#12_0" departPos="313.82" departSpeed="27.78" departDelay="0.00" arrival="359.50" arrivalLane="-19481122#1_0" arrivalPos="54.00" arrivalSpeed="13.89" duration="349.50" routeLength="4038.08" waitSteps="1037" timeLoss="200.72" rerouteNo="0" devices="tripinfo_10" vType="Car" speedFactor="1.00" vaporized=""/>
    <tripinfo id="104" depart="104.00" departLane="43073310#1_1" departPos="6.57" departSpeed="1.16" departDelay="0.00" arrival="364.80" arrivalLane="-226014643#0_0" arrivalPos="315.42" arrivalSpeed="5.56" duration="260.80" routeLength="2713.84" waitSteps="276" timeLoss="107.47" rerouteNo="0" devices="tripinfo_104" vType="Car" speedFactor="1.00" vaporized=""/>
    <tripinfo id="130" depart="130.00" departLane="-337393244#3_2" departPos="3.74" departSpeed="27.78" departDelay="0.00" arrival="367.30" arrivalLane="19479459#4_0" arrivalPos="278.38" arrivalSpeed="13.89" duration="237.30" routeLength="2829.03" waitSteps="554" timeLoss="104.79" rerouteNo="0" devices="tripinfo_130" vType="Car" speedFactor="1.00" vaporized=""/>
    <tripinfo id="87" depart="87.00" departLane="19450375#0_0" departPos="348.06" departSpeed="13.89" departDelay="0.00" arrival="368.70" arrivalLane="19455824#4_1" arrivalPos="48.47" arrivalSpeed="19.48" duration="281.70" routeLength="3628.19" waitSteps="353" timeLoss="111.68" rerouteNo="0" devices="tripinfo_87" vType="Car" speedFactor="1.00" vaporized=""/>
    <tripinfo id="100" depart="100.00" departLane="-19472871#2_0" departPos="41.52" departSpeed="13.89" departDelay="0.00" arrival="372.10" arrivalLane="-19480429#2_0" arrivalPos="119.36" arrivalSpeed="13.89" duration="272.10" routeLength="2839.45" waitSteps="593" timeLoss="134.09" rerouteNo="0" devices="tripinfo_100" vType="Car" speedFactor="1.00" vaporized=""/>
    <tripinfo id="54" depart="54.00" departLane="-226014645#1_0" departPos="34.09" departSpeed="13.89" departDelay="0.00" arrival="372.60" arrivalLane="119881990#0_0" arrivalPos="33.44" arrivalSpeed="9.57" duration="318.60" routeLength="2182.45" waitSteps="1243" timeLoss="228.60" rerouteNo="0" devices="tripinfo_54" vType="Car" speedFactor="1.00" vaporized=""/>
    <tripinfo id="103" depart="103.00" departLane="-245915229#14_0" departPos="167.18" departSpeed="27.78" departDelay="0.00" arrival="373.10" arrivalLane="19457070#1_0" arrivalPos="28.01" arrivalSpeed="13.89" duration="270.10" routeLength="4461.76" waitSteps="439" timeLoss="94.32" rerouteNo="0" devices="tripinfo_103" vType="Car" speedFactor="1.00" vaporized=""/>
    <tripinfo id="135" depart="135.00" departLane="19472023#3_0" departPos="105.04" departSpeed="8.76" departDelay="0.00" arrival="373.70" arrivalLane="-19481422#0_0" arrivalPos="209.01" arrivalSpeed="13.89" duration="238.70" routeLength="3090.40" waitSteps="177" timeLoss="93.68" rerouteNo="0" devices="tripinfo_135" vType="Car" speedFactor="1.00" vaporized=""/>
    <tripinfo id="15" depart="15.00" departLane="19469821#1_0" departPos="25.80" departSpeed="13.81" departDelay="0.00" arrival="374.70" arrivalLane="19456048_0" arrivalPos="194.41" arrivalSpeed="27.78" duration="359.70" routeLength="3234.49" waitSteps="1326" timeLoss="214.70" rerouteNo="0" devices="tripinfo_15" vType="Car" speedFactor="1.00" vaporized=""/>
    <tripinfo id="137" depart="137.00" departLane="-239576155#1_0" departPos="21.86" departSpeed="13.89" departDelay="0.00" arrival="376.50" arrivalLane="-19453530_0" arrivalPos="133.96" arrivalSpeed="13.89" duration="239.50" routeLength="3380.06" waitSteps="0" timeLoss="94.20" rerouteNo="0" devices="tripinfo_137" vType="Car" speedFactor="1.00" vaporized=""/>
    <tripinfo id="13" depart="13.00" departLane="19479816#0_0" departPos="15.24" departSpeed="13.89" departDelay="0.00" arrival="377.80" arrivalLane="19485912#2_0" arrivalPos="57.47" arrivalSpeed="13.89" duration="364.80" routeLength="3679.05" waitSteps="998" timeLoss="171.25" rerouteNo="0" devices="tripinfo_13" vType="Car" speedFactor="1.00" vaporized=""/>
    <tripinfo id="98" depart="98.00" departLane="19484078#0_1" departPos="49.06" departSpeed="20.99" departDelay="0.00" arrival="378.10" arrivalLane="19479459#4_0" arrivalPos="278.38" arrivalSpeed="13.89" duration="280.10" routeLength="3238.54" waitSteps="871" timeLoss="129.13" rerouteNo="0" devices="tripinfo_98" vType="Car" speedFactor="1.00" vaporized=""/>
    <tripinfo id="144" depart="144.00" departLane="245915245_0" departPos="39.41" departSpeed="13.89" departDelay="0.00" arrival="381.90" arrivalLane="-19455519#0_0" arrivalPos="54.59" arrivalSpeed="12.34" duration="237.90" routeLength="2405.35" waitSteps="644" timeLoss="128.93" rerouteNo="0" devices="tripinfo_144" vType="Car" speedFactor="1.00" vaporized=""/>
    <tripinfo id="58" depart="58.00" departLane="-232913086#0_0" departPos="31.84" departSpeed="5.56" departDelay="0.00" arrival="382.40" arrivalLane="-19479801#0_0" arrivalPos="2955.18" arrivalSpeed="27.78" duration="324.40" routeLength="5170.34" waitSteps="354" timeLoss="103.90" rerouteNo="0" devices="tripinfo_58" vType="Car" speedFactor="1.00" vaporized=""/>
    <tripinfo id="67" depart="67.00" departLane="19481432#0_0" departPos="130.92" departSpeed="13.89" departDelay="0.00" arrival="392.30" arrivalLane="120254976#6_0" arrivalPos="122.26" arrivalSpeed="27.78" duration="325.30" routeLength="3118.76" waitSteps="905" timeLoss="191.90" rerouteNo="0" devices="tripinfo_67" vType="Car" speedFactor="1.00" vaporized=""/>
    <tripinfo id="138" depart="138.00" departLane="19481816#5_0" departPos="33.41" departSpeed="13.89" departDelay="0.00" arrival="395.10" arrivalLane="-19454685#7_0" arrivalPos="0.20" arrivalSpeed="5.31" duration="257.10" routeLength="2841.32" waitSteps="688" timeLoss="147.43" rerouteNo="0" devices="tripinfo_138" vType="Car" speedFactor="1.00" vaporized=""/>
    <tripinfo id="94" depart="94.00" departLane="19480429#0_0" departPos="77.72" departSpeed="13.89" departDelay="0.00" arrival="395.80" arrivalLane="19484163#1_0" arrivalPos="173.01" arrivalSpeed="13.89" duration="301.80" routeLength="3880.10" waitSteps="348" timeLoss="135.60" rerouteNo="0" devices="tripinfo_94" vType="Car" speedFactor="1.00" vaporized=""/>
    <tripinfo id="77" depart="77.00" departLane="19457433#0_0" departPos="424.43" departSpeed="22.22" departDelay="0.00" arrival="400.40" arrivalLane="19451670#1_0" arrivalPos="100.86" arrivalSpeed="13.89" duration="323.40" routeLength="3612.57" waitSteps="757" timeLoss="175.75" rerouteNo="0" devices="tripinfo_77" vType="Car" speedFactor="1.00" vaporized=""/>
    <tripinfo id="155" depart="155.00" departLane="19479801#0_0" departPos="999.65" departSpeed="27.78" departDelay="0.00" arrival="402.00" arrivalLane="19457433#9_0" arrivalPos="63.24" arrivalSpeed="12.37" duration="247.00" routeLength="3737.12" waitSteps="569" timeLoss="110.03" rerouteNo="0" devices="tripinfo_155" vType="Car" speedFactor="1.00" vaporized=""/>
    <tripinfo id="153" depart="153.00" departLane="73961894_1" departPos="99.74" departSpeed="27.78" departDelay="0.00" arrival="402.10" arrivalLane="268942322_0" arrivalPos="253.14" arrivalSpeed="13.89" duration="249.10" routeLength="3731.74" waitSteps="222" timeLoss="104.15" rerouteNo="0" devices="tripinfo_153" vType="Car" speedFactor="1.00" vaporized=""/>
    <tripinfo id="64" depart="64.00" departLane="-19457616#12_1" departPos="556.19" departSpeed="27.78" departDelay="0.00" arrival="406.60" arrivalLane="-19485193#0_0" arrivalPos="216.35" arrivalSpeed="13.89" duration="342.60" routeLength="3138.16" waitSteps="958" timeLoss="194.69" rerouteNo="0" devices="tripinfo_64" vType="Car" speedFactor="1.00" vaporized=""/>
    <tripinfo id="38" depart="38.00" departLane="-19457671#2_0" departPos="180.58" departSpeed="13.89" departDelay="0.00" arrival="416.00" arrivalLane="19472364#2_0" arrivalPos="217.91" arrivalSpeed="13.89" duration="378.00" routeLength="3489.85" waitSteps="594" timeLoss="197.04" rerouteNo="0" devices="tripinfo_38" vType="Car" speedFactor="1.00" vaporized=""/>
    <tripinfo id="17" depart="17.00" departLane="-19454055#4_0" departPos="71.76" departSpeed="13.89" departDelay="0.00" arrival="416.20" arrivalLane="19478247#2_0" arrivalPos="92.15" arrivalSpeed="13.89" duration="399.20" routeLength="3535.17" waitSteps="1224" timeLoss="230.67" rerouteNo="0" devices="tripinfo_17" vType="Car" speedFactor="1.00" vaporized=""/>
    <tripinfo id="42" depart="42.00" departLane="-268942322_0" departPos="141.08" departSpeed="13.89" departDelay="0.00" arrival="416.90" arrivalLane="-41139605#0_0" arrivalPos="240.45" arrivalSpeed="27.78" duration="374.90" routeLength="3787.07" waitSteps="1072" timeLoss="232.43" rerouteNo="0" devices="tripinfo_42" vType="Car" speedFactor="1.00" vaporized=""/>
    <tripinfo id="29" depart="29.00" departLane="-19458611_0" departPos="49.65" departSpeed="1.13" departDelay="0.00" arrival="417.30" arrivalLane="-19458809_0" arrivalPos="31.52" arrivalSpeed="9.81" duration="388.30" routeLength="2727.42" waitSteps="1563" timeLoss="267.78" rerouteNo="0" devices="tripinfo_29" vType="Car" speedFactor="1.00" vaporized=""/>
    <tripinfo id="169" depart="169.00" departLane="120254976#0_1" departPos="170.79" departSpeed="27.78" departDelay="0.00" arrival="418.20" arrivalLane="43069100_1" arrivalPos="0.20" arrivalSpeed="5.16" duration="249.20" routeLength="2245.75" waitSteps="1037" timeLoss="155.67" rerouteNo="0" devices="tripinfo_169" vType="Car" speedFactor="1.00" vaporized=""/>
    <tripinfo id="74" depart="74.00" departLane="-239576154#3_0" departPos="76.74" departSpeed="13.89" departDelay="0.00" arrival="424.40" arrivalLane="-119881989#0_0" arrivalPos="90.34" arrivalSpeed="15.27" duration="350.40" routeLength="3498.15" waitSteps="991" timeLoss="184.15" rerouteNo="0" devices="tripinfo_74" vType="Car" speedFactor="1.00" vaporized=""/>