<?xml version="1.0" encoding="UTF-8"?>

<!-- generated on 4/6/2017 3:09:09 PM by SUMO gui Version 0.29.0
<?xml version="1.0" encoding="UTF-8"?>

<configuration xmlns:xsi="http://www.w3.org/2001/XMLSchema-instance" xsi:noNamespaceSchemaLocation="http://sumo.dlr.de/xsd/sumo-gui.exeConfiguration.xsd">

    <input>
        <net-file value="C:\Users\yli\Dropbox\sure\new_controllor\sumo\osm.net.xml"/>
        <route-files value="C:\Users\yli\Dropbox\sure\new_controllor\sumo\osm.passenger.trips.xml,C:\Users\yli\Dropbox\sure\new_controllor\sumo\osm.truck.trips.xml"/>
        <additional-files value="C:\Users\yli\Dropbox\sure\new_controllor\sumo\detectors.xml"/>
    </input>

    <output>
        <tripinfo-output value="C:\Users\yli\Dropbox\sure\new_controllor\sumo\tripinfo.xml"/>
    </output>

    <time>
        <begin value="0"/>
        <end value="3600"/>
        <step-length value="0.1"/>
    </time>

    <processing>
        <time-to-teleport value="7200"/>
    </processing>

</configuration>
-->

<tripinfos xmlns:xsi="http://www.w3.org/2001/XMLSchema-instance" xsi:noNamespaceSchemaLocation="http://sumo.dlr.de/xsd/tripinfo_file.xsd">
</tripinfos>
