<?xml version="1.0" encoding="UTF-8"?>

<!-- generated on Wed May 24 05:21:17 2017 by SUMO Version 0.26.0
<?xml version="1.0" encoding="UTF-8"?>

<configuration xmlns:xsi="http://www.w3.org/2001/XMLSchema-instance" xsi:noNamespaceSchemaLocation="http://sumo.dlr.de/xsd/sumoConfiguration.xsd">

    <input>
        <net-file value="./sumo/grid.net.xml"/>
        <route-files value="./sumo/new_test.xml"/>
        <additional-files value="./sumo/e3.add.xml"/>
    </input>

    <output>
        <output-prefix value="57748"/>
        <tripinfo-output value="tripinfo.xml"/>
    </output>

    <time>
        <begin value="0"/>
        <end value="3600"/>
        <step-length value="0.1"/>
    </time>

    <processing>
        <time-to-teleport value="3600"/>
    </processing>

    <traci_server>
        <remote-port value="57748"/>
    </traci_server>

</configuration>
-->

<tripinfos xmlns:xsi="http://www.w3.org/2001/XMLSchema-instance" xsi:noNamespaceSchemaLocation="http://sumo.dlr.de/xsd/tripinfo_file.xsd">
    <tripinfo id="2" depart="2.00" departLane="1/3to0/3_0" departPos="299.68" departSpeed="13.90" departDelay="0.00" arrival="8.70" arrivalLane="1/3to0/3_0" arrivalPos="392.00" arrivalSpeed="13.90" duration="6.70" routeLength="92.32" waitSteps="0" timeLoss="0.00" rerouteNo="0" devices="tripinfo_2" vType="Car" vaporized=""/>
    <tripinfo id="3" depart="3.00" departLane="2/0to1/0_0" departPos="10.87" departSpeed="13.90" departDelay="0.00" arrival="64.80" arrivalLane="1/0to1/1_0" arrivalPos="390.50" arrivalSpeed="13.90" duration="61.80" routeLength="775.13" waitSteps="0" timeLoss="5.89" rerouteNo="0" devices="tripinfo_3" vType="Car" vaporized=""/>
    <tripinfo id="4" depart="4.00" departLane="0/1to0/0_0" departPos="380.82" departSpeed="6.84" departDelay="0.00" arrival="71.20" arrivalLane="0/1to1/1_0" arrivalPos="390.50" arrivalSpeed="13.90" duration="67.20" routeLength="801.48" waitSteps="0" timeLoss="9.25" rerouteNo="0" devices="tripinfo_4" vType="Car" vaporized=""/>
    <tripinfo id="15" depart="15.00" departLane="1/0to1/1_0" departPos="102.13" departSpeed="13.90" departDelay="0.00" arrival="93.40" arrivalLane="1/2to0/2_0" arrivalPos="390.50" arrivalSpeed="13.90" duration="78.40" routeLength="1084.15" waitSteps="0" timeLoss="0.00" rerouteNo="0" devices="tripinfo_15" vType="Car" vaporized=""/>
    <tripinfo id="42" depart="42.00" departLane="2/1to2/0_0" departPos="88.95" departSpeed="13.90" departDelay="0.00" arrival="97.00" arrivalLane="2/0to1/0_0" arrivalPos="390.50" arrivalSpeed="13.90" duration="55.00" routeLength="697.05" waitSteps="0" timeLoss="4.77" rerouteNo="0" devices="tripinfo_42" vType="Car" vaporized=""/>
    <tripinfo id="63" depart="63.00" departLane="1/2to1/1_0" departPos="306.12" departSpeed="13.90" departDelay="0.00" arrival="97.90" arrivalLane="1/1to1/0_0" arrivalPos="390.50" arrivalSpeed="13.90" duration="34.90" routeLength="484.38" waitSteps="0" timeLoss="0.00" rerouteNo="0" devices="tripinfo_63" vType="Car" vaporized=""/>
    <tripinfo id="56" depart="56.00" departLane="1/2to0/2_0" departPos="250.97" departSpeed="13.90" departDelay="0.00" arrival="113.10" arrivalLane="0/2to0/1_0" arrivalPos="390.50" arrivalSpeed="13.90" duration="57.10" routeLength="540.35" waitSteps="64" timeLoss="18.01" rerouteNo="0" devices="tripinfo_56" vType="Car" vaporized=""/>
    <tripinfo id="34" depart="34.00" departLane="1/2to1/3_0" departPos="150.82" departSpeed="13.90" departDelay="0.00" arrival="118.50" arrivalLane="2/3to1/3_0" arrivalPos="390.50" arrivalSpeed="13.00" duration="84.50" routeLength="1028.09" waitSteps="0" timeLoss="10.19" rerouteNo="0" devices="tripinfo_34" vType="Car" vaporized=""/>
    <tripinfo id="25" depart="25.00" departLane="1/1to1/0_0" departPos="18.02" departSpeed="13.90" departDelay="0.00" arrival="118.90" arrivalLane="1/1to0/1_0" arrivalPos="390.50" arrivalSpeed="13.90" duration="93.90" routeLength="1161.45" waitSteps="0" timeLoss="9.62" rerouteNo="0" devices="tripinfo_25" vType="Car" vaporized=""/>
    <tripinfo id="5" depart="5.00" departLane="3/1to2/1_0" departPos="358.72" departSpeed="13.70" departDelay="0.00" arrival="126.90" arrivalLane="2/1to2/0_0" arrivalPos="390.50" arrivalSpeed="13.90" duration="121.90" routeLength="427.56" waitSteps="789" timeLoss="89.80" rerouteNo="0" devices="tripinfo_5" vType="Car" vaporized=""/>
    <tripinfo id="12" depart="12.00" departLane="2/1to3/1_0" departPos="139.04" departSpeed="13.90" departDelay="0.00" arrival="131.10" arrivalLane="3/3to3/2_0" arrivalPos="392.00" arrivalSpeed="13.90" duration="119.10" routeLength="1448.58" waitSteps="0" timeLoss="14.48" rerouteNo="0" devices="tripinfo_12" vType="Car" vaporized=""/>
    <tripinfo id="84" depart="84.00" departLane="3/0to3/1_0" departPos="179.40" departSpeed="13.90" departDelay="0.00" arrival="132.90" arrivalLane="3/1to3/2_0" arrivalPos="390.50" arrivalSpeed="13.90" duration="48.90" routeLength="612.60" waitSteps="0" timeLoss="4.77" rerouteNo="0" devices="tripinfo_84" vType="Car" vaporized=""/>
    <tripinfo id="68" depart="68.00" departLane="3/1to3/0_0" departPos="359.76" departSpeed="13.82" departDelay="0.00" arrival="137.10" arrivalLane="2/0to3/0_0" arrivalPos="392.00" arrivalSpeed="13.90" duration="69.10" routeLength="821.23" waitSteps="0" timeLoss="9.71" rerouteNo="0" devices="tripinfo_68" vType="Car" vaporized=""/>
    <tripinfo id="36" depart="36.10" departLane="1/1to1/0_0" departPos="381.52" departSpeed="4.36" departDelay="0.10" arrival="137.10" arrivalLane="2/1to3/1_0" arrivalPos="390.50" arrivalSpeed="13.90" duration="101.00" routeLength="1197.67" waitSteps="0" timeLoss="14.50" rerouteNo="0" devices="tripinfo_36" vType="Car" vaporized=""/>
    <tripinfo id="66" depart="66.00" departLane="0/3to1/3_0" departPos="223.36" departSpeed="13.90" departDelay="0.00" arrival="145.20" arrivalLane="0/3to0/2_0" arrivalPos="392.00" arrivalSpeed="13.90" duration="79.20" routeLength="962.95" waitSteps="0" timeLoss="9.53" rerouteNo="0" devices="tripinfo_66" vType="Car" vaporized=""/>
    <tripinfo id="30" depart="30.00" departLane="1/0to1/1_0" departPos="183.05" departSpeed="13.90" departDelay="0.00" arrival="145.70" arrivalLane="2/0to3/0_0" arrivalPos="392.00" arrivalSpeed="13.90" duration="115.70" routeLength="1402.68" waitSteps="0" timeLoss="14.37" rerouteNo="0" devices="tripinfo_30" vType="Car" vaporized=""/>
    <tripinfo id="53" depart="53.00" departLane="1/2to1/1_0" departPos="279.44" departSpeed="13.90" departDelay="0.00" arrival="157.10" arrivalLane="0/0to1/0_0" arrivalPos="392.00" arrivalSpeed="13.90" duration="104.10" routeLength="1308.78" waitSteps="0" timeLoss="9.78" rerouteNo="0" devices="tripinfo_53" vType="Car" vaporized=""/>
    <tripinfo id="21" depart="21.00" departLane="1/2to2/2_0" departPos="361.21" departSpeed="11.07" departDelay="0.00" arrival="161.10" arrivalLane="2/3to2/2_0" arrivalPos="390.50" arrivalSpeed="13.90" duration="140.10" routeLength="818.26" waitSteps="569" timeLoss="79.87" rerouteNo="0" devices="tripinfo_21" vType="Car" vaporized=""/>
    <tripinfo id="0" depart="0.00" departLane="2/1to2/0_0" departPos="347.94" departSpeed="13.90" departDelay="0.00" arrival="169.40" arrivalLane="1/1to1/2_0" arrivalPos="390.50" arrivalSpeed="4.73" duration="169.40" routeLength="1233.56" waitSteps="613" timeLoss="79.93" rerouteNo="0" devices="tripinfo_0" vType="Car" vaporized=""/>
    <tripinfo id="44" depart="44.10" departLane="1/1to0/1_0" departPos="251.07" departSpeed="13.90" departDelay="0.10" arrival="170.50" arrivalLane="1/2to1/3_0" arrivalPos="390.50" arrivalSpeed="7.43" duration="126.40" routeLength="1326.21" waitSteps="43" timeLoss="30.20" rerouteNo="0" devices="tripinfo_44" vType="Car" vaporized=""/>
    <tripinfo id="27" depart="27.00" departLane="0/1to0/0_0" departPos="250.68" departSpeed="13.90" departDelay="0.00" arrival="174.10" arrivalLane="1/1to1/0_0" arrivalPos="390.50" arrivalSpeed="8.79" duration="147.10" routeLength="1327.12" waitSteps="269" timeLoss="50.90" rerouteNo="0" devices="tripinfo_27" vType="Car" vaporized=""/>
    <tripinfo id="24" depart="24.00" departLane="2/3to2/2_0" departPos="175.43" departSpeed="13.90" departDelay="0.00" arrival="182.60" arrivalLane="0/2to0/1_0" arrivalPos="390.50" arrivalSpeed="13.67" duration="158.60" routeLength="1411.39" waitSteps="380" timeLoss="56.48" rerouteNo="0" devices="tripinfo_24" vType="Car" vaporized=""/>
    <tripinfo id="167" depart="167.00" departLane="2/2to3/2_0" departPos="162.75" departSpeed="13.90" departDelay="0.00" arrival="183.40" arrivalLane="2/2to3/2_0" arrivalPos="390.50" arrivalSpeed="13.90" duration="16.40" routeLength="227.75" waitSteps="0" timeLoss="0.00" rerouteNo="0" devices="tripinfo_167" vType="Car" vaporized=""/>
    <tripinfo id="13" depart="13.00" departLane="3/3to3/2_0" departPos="238.95" departSpeed="13.90" departDelay="0.00" arrival="197.30" arrivalLane="1/2to2/2_0" arrivalPos="390.50" arrivalSpeed="5.77" duration="184.30" routeLength="1341.46" waitSteps="512" timeLoss="86.75" rerouteNo="0" devices="tripinfo_13" vType="Car" vaporized=""/>
    <tripinfo id="65" depart="65.00" departLane="2/1to3/1_0" departPos="10.76" departSpeed="13.90" departDelay="0.00" arrival="197.90" arrivalLane="3/2to2/2_0" arrivalPos="390.50" arrivalSpeed="4.62" duration="132.90" routeLength="1176.34" waitSteps="270" timeLoss="47.42" rerouteNo="0" devices="tripinfo_65" vType="Car" vaporized=""/>
    <tripinfo id="70" depart="70.00" departLane="3/2to2/2_0" departPos="113.34" departSpeed="13.90" departDelay="0.00" arrival="199.00" arrivalLane="1/2to2/2_0" arrivalPos="390.50" arrivalSpeed="6.64" duration="129.00" routeLength="1070.07" waitSteps="294" timeLoss="51.22" rerouteNo="0" devices="tripinfo_70" vType="Car" vaporized=""/>
    <tripinfo id="76" depart="76.00" departLane="2/1to2/0_0" departPos="167.71" departSpeed="13.90" departDelay="0.00" arrival="204.30" arrivalLane="1/0to1/1_0" arrivalPos="390.50" arrivalSpeed="4.30" duration="128.30" routeLength="1013.79" waitSteps="290" timeLoss="54.91" rerouteNo="0" devices="tripinfo_76" vType="Car" vaporized=""/>
    <tripinfo id="33" depart="33.00" departLane="1/1to0/1_0" departPos="121.88" departSpeed="13.90" departDelay="0.00" arrival="204.90" arrivalLane="1/0to2/0_0" arrivalPos="390.50" arrivalSpeed="9.75" duration="171.90" routeLength="1458.13" waitSteps="413" timeLoss="66.06" rerouteNo="0" devices="tripinfo_33" vType="Car" vaporized=""/>
    <tripinfo id="139" depart="139.00" departLane="3/1to3/2_0" departPos="41.12" departSpeed="13.90" departDelay="0.00" arrival="207.40" arrivalLane="3/2to2/2_0" arrivalPos="390.50" arrivalSpeed="9.51" duration="68.40" routeLength="745.16" waitSteps="0" timeLoss="14.28" rerouteNo="0" devices="tripinfo_139" vType="Car" vaporized=""/>
    <tripinfo id="31" depart="31.00" departLane="1/3to0/3_0" departPos="274.83" departSpeed="13.90" departDelay="0.00" arrival="209.00" arrivalLane="1/0to2/0_0" arrivalPos="390.50" arrivalSpeed="13.90" duration="178.00" routeLength="2109.17" waitSteps="0" timeLoss="25.47" rerouteNo="0" devices="tripinfo_31" vType="Car" vaporized=""/>
    <tripinfo id="11" depart="11.00" departLane="1/1to1/0_0" departPos="134.43" departSpeed="13.90" departDelay="0.00" arrival="209.60" arrivalLane="0/3to1/3_0" arrivalPos="392.00" arrivalSpeed="13.33" duration="198.60" routeLength="2236.62" waitSteps="55" timeLoss="36.70" rerouteNo="0" devices="tripinfo_11" vType="Car" vaporized=""/>
    <tripinfo id="73" depart="73.00" departLane="0/2to1/2_0" departPos="257.14" departSpeed="13.90" departDelay="0.00" arrival="211.90" arrivalLane="0/1to0/0_0" arrivalPos="392.00" arrivalSpeed="13.90" duration="138.90" routeLength="1328.59" waitSteps="216" timeLoss="42.69" rerouteNo="0" devices="tripinfo_73" vType="Car" vaporized=""/>
    <tripinfo id="134" depart="134.00" departLane="1/1to1/0_0" departPos="232.11" departSpeed="13.90" departDelay="0.00" arrival="212.70" arrivalLane="2/0to1/0_0" arrivalPos="390.50" arrivalSpeed="13.90" duration="78.70" routeLength="952.12" waitSteps="0" timeLoss="9.89" rerouteNo="0" devices="tripinfo_134" vType="Car" vaporized=""/>
    <tripinfo id="22" depart="22.00" departLane="2/1to1/1_0" departPos="267.10" departSpeed="13.90" departDelay="0.00" arrival="215.50" arrivalLane="1/0to2/0_0" arrivalPos="390.50" arrivalSpeed="13.90" duration="193.50" routeLength="920.00" waitSteps="1044" timeLoss="125.69" rerouteNo="0" devices="tripinfo_22" vType="Car" vaporized=""/>
    <tripinfo id="48" depart="48.00" departLane="3/2to3/3_0" departPos="347.59" departSpeed="13.90" departDelay="0.00" arrival="226.00" arrivalLane="2/2to1/2_0" arrivalPos="390.50" arrivalSpeed="4.27" duration="178.00" routeLength="1235.59" waitSteps="542" timeLoss="87.91" rerouteNo="0" devices="tripinfo_48" vType="Car" vaporized=""/>
    <tripinfo id="49" depart="49.00" departLane="3/2to3/1_0" departPos="297.00" departSpeed="13.90" departDelay="0.00" arrival="227.00" arrivalLane="2/3to1/3_0" arrivalPos="390.50" arrivalSpeed="13.90" duration="178.00" routeLength="1685.32" waitSteps="27" timeLoss="56.06" rerouteNo="0" devices="tripinfo_49" vType="Car" vaporized=""/>
    <tripinfo id="14" depart="14.00" departLane="1/0to1/1_0" departPos="188.74" departSpeed="13.90" departDelay="0.00" arrival="229.00" arrivalLane="0/2to1/2_0" arrivalPos="390.50" arrivalSpeed="4.39" duration="215.00" routeLength="1388.54" waitSteps="783" timeLoss="113.71" rerouteNo="0" devices="tripinfo_14" vType="Car" vaporized=""/>
    <tripinfo id="19" depart="19.00" departLane="3/2to3/1_0" departPos="257.94" departSpeed="13.90" departDelay="0.00" arrival="229.60" arrivalLane="2/2to1/2_0" arrivalPos="390.50" arrivalSpeed="6.52" duration="210.60" routeLength="1319.34" waitSteps="601" timeLoss="114.37" rerouteNo="0" devices="tripinfo_19" vType="Car" vaporized=""/>
    <tripinfo id="29" depart="29.00" departLane="2/1to2/0_0" departPos="345.88" departSpeed="13.90" departDelay="0.00" arrival="229.90" arrivalLane="1/2to1/3_0" arrivalPos="390.50" arrivalSpeed="3.99" duration="200.90" routeLength="1635.62" waitSteps="506" timeLoss="82.42" rerouteNo="0" devices="tripinfo_29" vType="Car" vaporized=""/>
    <tripinfo id="71" depart="71.00" departLane="2/2to2/3_0" departPos="251.25" departSpeed="13.90" departDelay="0.00" arrival="233.70" arrivalLane="1/2to1/3_0" arrivalPos="390.50" arrivalSpeed="5.99" duration="162.70" routeLength="1328.76" waitSteps="269" timeLoss="65.95" rerouteNo="0" devices="tripinfo_71" vType="Car" vaporized=""/>
    <tripinfo id="51" depart="51.00" departLane="2/2to3/2_0" departPos="284.01" departSpeed="13.90" departDelay="0.00" arrival="236.10" arrivalLane="0/1to0/0_0" arrivalPos="392.00" arrivalSpeed="9.45" duration="185.10" routeLength="2102.00" waitSteps="0" timeLoss="33.19" rerouteNo="0" devices="tripinfo_51" vType="Car" vaporized=""/>
    <tripinfo id="35" depart="35.10" departLane="1/2to2/2_0" departPos="68.22" departSpeed="13.90" departDelay="0.10" arrival="237.10" arrivalLane="0/1to0/2_0" arrivalPos="390.50" arrivalSpeed="13.90" duration="202.00" routeLength="1908.92" waitSteps="215" timeLoss="63.62" rerouteNo="0" devices="tripinfo_35" vType="Car" vaporized=""/>
    <tripinfo id="8" depart="8.00" departLane="2/1to2/0_0" departPos="222.66" departSpeed="13.90" departDelay="0.00" arrival="237.60" arrivalLane="3/3to3/2_0" arrivalPos="392.00" arrivalSpeed="13.90" duration="229.60" routeLength="2152.61" waitSteps="480" timeLoss="73.77" rerouteNo="0" devices="tripinfo_8" vType="Car" vaporized=""/>
    <tripinfo id="118" depart="118.00" departLane="1/1to2/1_0" departPos="148.71" departSpeed="13.90" departDelay="0.00" arrival="238.50" arrivalLane="2/2to1/2_0" arrivalPos="390.50" arrivalSpeed="4.70" duration="120.50" routeLength="1033.35" waitSteps="241" timeLoss="44.97" rerouteNo="0" devices="tripinfo_118" vType="Car" vaporized=""/>
    <tripinfo id="130" depart="130.00" departLane="3/1to3/0_0" departPos="261.71" departSpeed="13.90" departDelay="0.00" arrival="239.80" arrivalLane="1/0to2/0_0" arrivalPos="390.50" arrivalSpeed="13.90" duration="109.80" routeLength="1317.78" waitSteps="0" timeLoss="14.59" rerouteNo="0" devices="tripinfo_130" vType="Car" vaporized=""/>
    <tripinfo id="28" depart="28.00" departLane="2/2to2/3_0" departPos="189.58" departSpeed="13.90" departDelay="0.00" arrival="244.10" arrivalLane="1/1to0/1_0" arrivalPos="390.50" arrivalSpeed="3.27" duration="216.10" routeLength="1793.02" waitSteps="521" timeLoss="85.94" rerouteNo="0" devices="tripinfo_28" vType="Car" vaporized=""/>
    <tripinfo id="206" depart="206.00" departLane="2/0to3/0_0" departPos="327.16" departSpeed="13.90" departDelay="0.00" arrival="244.50" arrivalLane="3/0to3/1_0" arrivalPos="392.00" arrivalSpeed="13.90" duration="38.50" routeLength="464.74" waitSteps="0" timeLoss="4.94" rerouteNo="0" devices="tripinfo_206" vType="Car" vaporized=""/>
    <tripinfo id="57" depart="57.00" departLane="2/1to3/1_0" departPos="222.29" departSpeed="13.90" departDelay="0.00" arrival="251.80" arrivalLane="0/0to1/0_0" arrivalPos="392.00" arrivalSpeed="13.90" duration="194.80" routeLength="2163.62" waitSteps="83" timeLoss="38.55" rerouteNo="0" devices="tripinfo_57" vType="Car" vaporized=""/>
    <tripinfo id="100" depart="100.00" departLane="2/2to1/2_0" departPos="256.11" departSpeed="13.90" departDelay="0.00" arrival="251.90" arrivalLane="3/3to2/3_0" arrivalPos="392.00" arrivalSpeed="13.90" duration="151.90" routeLength="1721.09" waitSteps="0" timeLoss="27.55" rerouteNo="0" devices="tripinfo_100" vType="Car" vaporized=""/>
    <tripinfo id="43" depart="43.00" departLane="1/3to2/3_0" departPos="251.17" departSpeed="13.90" departDelay="0.00" arrival="253.30" arrivalLane="2/2to2/1_0" arrivalPos="390.50" arrivalSpeed="5.81" duration="210.30" routeLength="934.83" waitSteps="1151" timeLoss="141.63" rerouteNo="0" devices="tripinfo_43" vType="Car" vaporized=""/>
    <tripinfo id="40" depart="40.00" departLane="3/2to3/1_0" departPos="386.07" departSpeed="3.43" departDelay="0.00" arrival="254.60" arrivalLane="2/3to2/2_0" arrivalPos="390.50" arrivalSpeed="7.37" duration="214.60" routeLength="1588.62" waitSteps="452" timeLoss="99.17" rerouteNo="0" devices="tripinfo_40" vType="Car" vaporized=""/>
    <tripinfo id="32" depart="32.00" departLane="1/1to2/1_0" departPos="200.55" departSpeed="13.90" departDelay="0.00" arrival="256.10" arrivalLane="2/3to2/2_0" arrivalPos="390.50" arrivalSpeed="8.03" duration="224.10" routeLength="1378.92" waitSteps="628" timeLoss="123.19" rerouteNo="0" devices="tripinfo_32" vType="Car" vaporized=""/>
    <tripinfo id="47" depart="47.00" departLane="2/2to1/2_0" departPos="257.40" departSpeed="13.90" departDelay="0.00" arrival="257.70" arrivalLane="1/0to0/0_0" arrivalPos="392.00" arrivalSpeed="13.90" duration="210.70" routeLength="1325.88" waitSteps="826" timeLoss="113.76" rerouteNo="0" devices="tripinfo_47" vType="Car" vaporized=""/>
    <tripinfo id="192" depart="192.00" departLane="2/2to2/1_0" departPos="339.01" departSpeed="9.30" departDelay="0.00" arrival="258.10" arrivalLane="2/2to2/1_0" arrivalPos="390.50" arrivalSpeed="8.09" duration="66.10" routeLength="51.49" waitSteps="504" timeLoss="61.78" rerouteNo="0" devices="tripinfo_192" vType="Car" vaporized=""/>
    <tripinfo id="229" depart="229.00" departLane="2/3to2/2_0" departPos="300.61" departSpeed="13.90" departDelay="0.00" arrival="259.00" arrivalLane="2/3to2/2_0" arrivalPos="390.50" arrivalSpeed="9.25" duration="30.00" routeLength="89.89" waitSteps="102" timeLoss="23.31" rerouteNo="0" devices="tripinfo_229" vType="Car" vaporized=""/>
    <tripinfo id="183" depart="183.00" departLane="2/1to3/1_0" departPos="328.89" departSpeed="13.90" departDelay="0.00" arrival="262.40" arrivalLane="3/2to3/3_0" arrivalPos="392.00" arrivalSpeed="13.90" duration="79.40" routeLength="863.93" waitSteps="6" timeLoss="17.00" rerouteNo="0" devices="tripinfo_183" vType="Car" vaporized=""/>
    <tripinfo id="102" depart="102.10" departLane="3/1to2/1_0" departPos="289.52" departSpeed="13.90" departDelay="0.10" arrival="262.50" arrivalLane="3/3to2/3_0" arrivalPos="392.00" arrivalSpeed="13.90" duration="160.40" routeLength="1687.68" waitSteps="0" timeLoss="38.19" rerouteNo="0" devices="tripinfo_102" vType="Car" vaporized=""/>
    <tripinfo id="58" depart="58.00" departLane="0/2to0/3_0" departPos="356.16" departSpeed="12.81" departDelay="0.00" arrival="265.30" arrivalLane="0/1to1/1_0" arrivalPos="390.50" arrivalSpeed="3.49" duration="207.30" routeLength="1225.82" waitSteps="948" timeLoss="117.43" rerouteNo="0" devices="tripinfo_58" vType="Car" vaporized=""/>
    <tripinfo id="46" depart="46.00" departLane="3/2to2/2_0" departPos="209.14" departSpeed="13.90" departDelay="0.00" arrival="265.60" arrivalLane="0/0to0/1_0" arrivalPos="392.00" arrivalSpeed="13.90" duration="219.60" routeLength="2178.48" waitSteps="192" timeLoss="62.01" rerouteNo="0" devices="tripinfo_46" vType="Car" vaporized=""/>
    <tripinfo id="18" depart="18.00" departLane="0/1to0/0_0" departPos="390.09" departSpeed="1.70" departDelay="0.00" arrival="266.90" arrivalLane="3/3to3/2_0" arrivalPos="392.00" arrivalSpeed="13.90" duration="248.90" routeLength="2779.57" waitSteps="69" timeLoss="47.85" rerouteNo="0" devices="tripinfo_18" vType="Car" vaporized=""/>
    <tripinfo id="177" depart="177.20" departLane="3/2to2/2_0" departPos="176.55" departSpeed="11.56" departDelay="0.20" arrival="268.00" arrivalLane="2/3to1/3_0" arrivalPos="390.50" arrivalSpeed="13.90" duration="90.80" routeLength="1010.27" waitSteps="0" timeLoss="17.85" rerouteNo="0" devices="tripinfo_177" vType="Car" vaporized=""/>
    <tripinfo id="16" depart="16.00" departLane="2/2to1/2_0" departPos="52.27" departSpeed="13.90" departDelay="0.00" arrival="268.60" arrivalLane="3/2to3/3_0" arrivalPos="392.00" arrivalSpeed="13.90" duration="252.60" routeLength="1533.46" waitSteps="1050" timeLoss="140.70" rerouteNo="0" devices="tripinfo_16" vType="Car" vaporized=""/>
    <tripinfo id="74" depart="74.00" departLane="2/2to1/2_0" departPos="60.70" departSpeed="13.90" departDelay="0.00" arrival="270.50" arrivalLane="3/2to3/1_0" arrivalPos="390.50" arrivalSpeed="13.90" duration="196.50" routeLength="1518.21" waitSteps="438" timeLoss="86.20" rerouteNo="0" devices="tripinfo_74" vType="Car" vaporized=""/>
    <tripinfo id="69" depart="69.00" departLane="0/3to1/3_0" departPos="102.88" departSpeed="13.90" departDelay="0.00" arrival="272.60" arrivalLane="1/0to2/0_0" arrivalPos="390.50" arrivalSpeed="8.33" duration="203.60" routeLength="1885.44" waitSteps="399" timeLoss="67.15" rerouteNo="0" devices="tripinfo_69" vType="Car" vaporized=""/>
    <tripinfo id="119" depart="119.00" departLane="1/0to0/0_0" departPos="116.83" departSpeed="13.90" departDelay="0.00" arrival="274.50" arrivalLane="0/3to0/2_0" arrivalPos="392.00" arrivalSpeed="8.68" duration="155.50" routeLength="1865.45" waitSteps="0" timeLoss="20.77" rerouteNo="0" devices="tripinfo_119" vType="Car" vaporized=""/>
    <tripinfo id="55" depart="55.00" departLane="0/0to1/0_0" departPos="209.74" departSpeed="13.90" departDelay="0.00" arrival="277.40" arrivalLane="1/1to1/2_0" arrivalPos="390.50" arrivalSpeed="4.75" duration="222.40" routeLength="978.04" waitSteps="1256" timeLoss="150.20" rerouteNo="0" devices="tripinfo_55" vType="Car" vaporized=""/>
    <tripinfo id="147" depart="147.00" departLane="1/0to1/1_0" departPos="301.55" departSpeed="13.74" departDelay="0.00" arrival="279.40" arrivalLane="0/1to0/2_0" arrivalPos="390.50" arrivalSpeed="10.23" duration="132.40" routeLength="880.23" waitSteps="352" timeLoss="68.07" rerouteNo="0" devices="tripinfo_147" vType="Car" vaporized=""/>
    <tripinfo id="60" depart="60.00" departLane="2/2to2/3_0" departPos="43.42" departSpeed="13.90" departDelay="0.00" arrival="285.60" arrivalLane="2/1to1/1_0" arrivalPos="390.50" arrivalSpeed="13.66" duration="225.60" routeLength="1535.77" waitSteps="787" timeLoss="113.78" rerouteNo="0" devices="tripinfo_60" vType="Car" vaporized=""/>
    <tripinfo id="83" depart="83.00" departLane="1/2to2/2_0" departPos="34.57" departSpeed="13.90" departDelay="0.00" arrival="286.90" arrivalLane="1/3to2/3_0" arrivalPos="390.50" arrivalSpeed="13.90" duration="203.90" routeLength="1539.84" waitSteps="747" timeLoss="91.95" rerouteNo="0" devices="tripinfo_83" vType="Car" vaporized=""/>
    <tripinfo id="169" depart="169.20" departLane="1/0to1/1_0" departPos="195.49" departSpeed="12.34" departDelay="0.20" arrival="289.20" arrivalLane="1/0to2/0_0" arrivalPos="390.50" arrivalSpeed="13.90" duration="120.00" routeLength="988.74" waitSteps="126" timeLoss="48.23" rerouteNo="0" devices="tripinfo_169" vType="Car" vaporized=""/>
    <tripinfo id="128" depart="128.10" departLane="0/2to1/2_0" departPos="333.76" departSpeed="13.90" departDelay="0.10" arrival="290.30" arrivalLane="0/2to0/1_0" arrivalPos="390.50" arrivalSpeed="12.13" duration="162.20" routeLength="850.47" waitSteps="778" timeLoss="99.85" rerouteNo="0" devices="tripinfo_128" vType="Car" vaporized=""/>
    <tripinfo id="86" depart="86.00" departLane="2/1to2/2_0" departPos="136.90" departSpeed="13.90" departDelay="0.00" arrival="293.10" arrivalLane="1/3to0/3_0" arrivalPos="392.00" arrivalSpeed="13.90" duration="207.10" routeLength="1447.20" waitSteps="640" timeLoss="101.62" rerouteNo="0" devices="tripinfo_86" vType="Car" vaporized=""/>
    <tripinfo id="59" depart="59.00" departLane="1/0to2/0_0" departPos="146.84" departSpeed="13.90" departDelay="0.00" arrival="293.70" arrivalLane="0/2to0/1_0" arrivalPos="390.50" arrivalSpeed="13.90" duration="234.70" routeLength="2216.26" waitSteps="402" timeLoss="73.70" rerouteNo="0" devices="tripinfo_59" vType="Car" vaporized=""/>
    <tripinfo id="87" depart="87.00" departLane="1/2to1/1_0" departPos="204.69" departSpeed="13.90" departDelay="0.00" arrival="297.40" arrivalLane="2/3to3/3_0" arrivalPos="392.00" arrivalSpeed="13.90" duration="210.40" routeLength="1775.72" waitSteps="440" timeLoss="81.61" rerouteNo="0" devices="tripinfo_87" vType="Car" vaporized=""/>
    <tripinfo id="78" depart="78.00" departLane="0/1to1/1_0" departPos="150.17" departSpeed="13.90" departDelay="0.00" arrival="303.30" arrivalLane="1/1to2/1_0" arrivalPos="390.50" arrivalSpeed="3.49" duration="225.30" routeLength="640.33" waitSteps="1568" timeLoss="177.53" rerouteNo="0" devices="tripinfo_78" vType="Car" vaporized=""/>
    <tripinfo id="10" depart="10.00" departLane="3/2to3/3_0" departPos="55.19" departSpeed="13.90" departDelay="0.00" arrival="305.40" arrivalLane="3/1to2/1_0" arrivalPos="390.50" arrivalSpeed="4.73" duration="295.40" routeLength="1527.11" waitSteps="1604" timeLoss="183.59" rerouteNo="0" devices="tripinfo_10" vType="Car" vaporized=""/>
    <tripinfo id="171" depart="171.00" departLane="1/3to0/3_0" departPos="3.09" departSpeed="13.90" departDelay="0.00" arrival="306.10" arrivalLane="0/1to0/2_0" arrivalPos="390.50" arrivalSpeed="13.90" duration="135.10" routeLength="1581.72" waitSteps="0" timeLoss="20.83" rerouteNo="0" devices="tripinfo_171" vType="Car" vaporized=""/>
    <tripinfo id="142" depart="142.00" departLane="0/1to0/2_0" departPos="107.25" departSpeed="13.90" departDelay="0.00" arrival="308.70" arrivalLane="1/1to1/0_0" arrivalPos="390.50" arrivalSpeed="13.90" duration="166.70" routeLength="1467.44" waitSteps="270" timeLoss="59.95" rerouteNo="0" devices="tripinfo_142" vType="Car" vaporized=""/>
    <tripinfo id="235" depart="235.00" departLane="1/3to2/3_0" departPos="296.34" departSpeed="13.90" departDelay="0.00" arrival="309.00" arrivalLane="3/3to2/3_0" arrivalPos="392.00" arrivalSpeed="13.90" duration="74.00" routeLength="889.86" waitSteps="0" timeLoss="9.57" rerouteNo="0" devices="tripinfo_235" vType="Car" vaporized=""/>
    <tripinfo id="62" depart="62.00" departLane="3/0to2/0_0" departPos="126.86" departSpeed="13.90" departDelay="0.00" arrival="309.50" arrivalLane="0/2to0/1_0" arrivalPos="390.50" arrivalSpeed="11.28" duration="247.50" routeLength="2244.83" waitSteps="374" timeLoss="84.58" rerouteNo="0" devices="tripinfo_62" vType="Car" vaporized=""/>
    <tripinfo id="64" depart="64.00" departLane="0/3to0/2_0" departPos="323.74" departSpeed="13.90" departDelay="0.00" arrival="313.10" arrivalLane="3/2to2/2_0" arrivalPos="390.50" arrivalSpeed="6.78" duration="249.10" routeLength="1657.23" waitSteps="699" timeLoss="128.06" rerouteNo="0" devices="tripinfo_64" vType="Car" vaporized=""/>
    <tripinfo id="191" depart="191.00" departLane="1/3to1/2_0" departPos="210.80" departSpeed="13.90" departDelay="0.00" arrival="314.60" arrivalLane="1/2to0/2_0" arrivalPos="390.50" arrivalSpeed="13.90" duration="123.60" routeLength="575.20" waitSteps="665" timeLoss="81.43" rerouteNo="0" devices="tripinfo_191" vType="Car" vaporized=""/>
    <tripinfo id="129" depart="129.00" departLane="1/1to1/0_0" departPos="328.55" departSpeed="13.90" departDelay="0.00" arrival="317.80" arrivalLane="0/2to0/1_0" arrivalPos="390.50" arrivalSpeed="13.90" duration="188.80" routeLength="1639.33" waitSteps="184" timeLoss="69.52" rerouteNo="0" devices="tripinfo_129" vType="Car" vaporized=""/>
    <tripinfo id="227" depart="227.10" departLane="3/3to3/2_0" departPos="35.42" departSpeed="13.90" departDelay="0.10" arrival="318.90" arrivalLane="3/2to2/2_0" arrivalPos="390.50" arrivalSpeed="6.25" duration="91.80" routeLength="752.08" waitSteps="160" timeLoss="37.34" rerouteNo="0" devices="tripinfo_227" vType="Car" vaporized=""/>
    <tripinfo id="207" depart="207.00" departLane="0/2to0/1_0" departPos="183.84" departSpeed="13.90" departDelay="0.00" arrival="318.90" arrivalLane="1/1to1/0_0" arrivalPos="390.50" arrivalSpeed="3.37" duration="111.90" routeLength="997.94" waitSteps="106" timeLoss="39.31" rerouteNo="0" devices="tripinfo_207" vType="Car" vaporized=""/>
    <tripinfo id="162" depart="162.00" departLane="2/2to2/1_0" departPos="297.61" departSpeed="13.90" departDelay="0.00" arrival="319.70" arrivalLane="2/0to3/0_0" arrivalPos="392.00" arrivalSpeed="8.74" duration="157.70" routeLength="895.21" waitSteps="733" timeLoss="92.32" rerouteNo="0" devices="tripinfo_162" vType="Car" vaporized=""/>